d 0.858605 0 1 tcp 1510 ------- 0 2.0 3.0 225 351
d 0.859813 0 1 tcp 1510 ------- 0 2.0 3.0 227 353
d 0.861021 0 1 tcp 1510 ------- 0 2.0 3.0 229 355
d 0.862229 0 1 tcp 1510 ------- 0 2.0 3.0 231 357
d 0.863437 0 1 tcp 1510 ------- 0 2.0 3.0 233 359
d 0.864645 0 1 tcp 1510 ------- 0 2.0 3.0 235 361
d 0.865853 0 1 tcp 1510 ------- 0 2.0 3.0 237 363
d 0.867061 0 1 tcp 1510 ------- 0 2.0 3.0 239 366
d 0.868269 0 1 tcp 1510 ------- 0 2.0 3.0 241 369
d 0.869477 0 1 tcp 1510 ------- 0 2.0 3.0 243 372
d 0.870685 0 1 tcp 1510 ------- 0 2.0 3.0 245 375
d 0.871893 0 1 tcp 1510 ------- 0 2.0 3.0 247 378
d 0.873101 0 1 tcp 1510 ------- 0 2.0 3.0 249 381
d 0.874309 0 1 tcp 1510 ------- 0 2.0 3.0 251 384
d 0.875517 0 1 tcp 1510 ------- 0 2.0 3.0 253 387
d 0.988246 0 1 tcp 1510 ------- 0 2.0 3.0 347 574
d 0.989454 0 1 tcp 1510 ------- 0 2.0 3.0 349 577
d 0.990662 0 1 tcp 1510 ------- 0 2.0 3.0 351 580
d 0.99187 0 1 tcp 1510 ------- 0 2.0 3.0 353 583
d 0.993078 0 1 tcp 1510 ------- 0 2.0 3.0 355 586
d 0.994286 0 1 tcp 1510 ------- 0 2.0 3.0 357 589
d 0.995494 0 1 tcp 1510 ------- 0 2.0 3.0 359 592
d 0.996702 0 1 tcp 1510 ------- 0 2.0 3.0 361 595
d 0.99791 0 1 tcp 1510 ------- 0 2.0 3.0 363 598
d 0.999118 0 1 tcp 1510 ------- 0 2.0 3.0 365 601
d 1.000326 0 1 tcp 1510 ------- 0 2.0 3.0 367 604
d 1.001534 0 1 tcp 1510 ------- 0 2.0 3.0 369 607
d 1.002742 0 1 tcp 1510 ------- 0 2.0 3.0 371 610
d 1.00395 0 1 tcp 1510 ------- 0 2.0 3.0 373 613
d 1.005158 0 1 tcp 1510 ------- 0 2.0 3.0 375 616
d 1.006366 0 1 tcp 1510 ------- 0 2.0 3.0 377 619
d 1.007574 0 1 tcp 1510 ------- 0 2.0 3.0 379 622
d 1.008782 0 1 tcp 1510 ------- 0 2.0 3.0 381 625
d 1.00999 0 1 tcp 1510 ------- 0 2.0 3.0 383 628
d 1.011198 0 1 tcp 1510 ------- 0 2.0 3.0 385 631
d 1.012406 0 1 tcp 1510 ------- 0 2.0 3.0 387 634
d 1.013614 0 1 tcp 1510 ------- 0 2.0 3.0 389 637
d 1.014822 0 1 tcp 1510 ------- 0 2.0 3.0 391 640
d 1.01603 0 1 tcp 1510 ------- 0 2.0 3.0 393 643
d 1.017238 0 1 tcp 1510 ------- 0 2.0 3.0 395 646
d 1.018446 0 1 tcp 1510 ------- 0 2.0 3.0 397 649
d 1.407422 0 1 tcp 1510 ------- 0 2.0 3.0 679 1294
d 1.427958 0 1 tcp 1510 ------- 0 2.0 3.0 697 1329
d 1.453326 0 1 tcp 1510 ------- 0 2.0 3.0 719 1372
d 1.478694 0 1 tcp 1510 ------- 0 2.0 3.0 741 1415
d 1.51131 0 1 tcp 1510 ------- 0 2.0 3.0 769 1470
d 1.545134 0 1 tcp 1510 ------- 0 2.0 3.0 798 1527
d 1.578958 0 1 tcp 1510 ------- 0 2.0 3.0 827 1584
d 8.242286 0 1 tcp 1510 ------- 0 2.0 3.0 6337 12617
d 8.34255 0 1 tcp 1510 ------- 0 2.0 3.0 6421 12784
d 11.13907 0 1 tcp 1510 ------- 0 2.0 3.0 8735 17415
d 18.294054 0 1 tcp 1510 ------- 0 2.0 3.0 14658 29262
d 18.359286 0 1 tcp 1510 ------- 0 2.0 3.0 14713 29371
d 18.425726 0 1 tcp 1510 ------- 0 2.0 3.0 14769 29482
d 20.977022 0 1 tcp 1510 ------- 0 2.0 3.0 16879 33707
d 28.132006 0 1 tcp 1510 ------- 0 2.0 3.0 22802 45554
d 28.197238 0 1 tcp 1510 ------- 0 2.0 3.0 22857 45663
d 28.263678 0 1 tcp 1510 ------- 0 2.0 3.0 22913 45774
