d 0.858605 0 1 tcp 1510 ------- 0 2.0 3.0 225 351
d 0.859813 0 1 tcp 1510 ------- 0 2.0 3.0 227 353
d 0.861021 0 1 tcp 1510 ------- 0 2.0 3.0 229 355
d 0.862229 0 1 tcp 1510 ------- 0 2.0 3.0 231 357
d 0.863437 0 1 tcp 1510 ------- 0 2.0 3.0 233 359
d 0.864645 0 1 tcp 1510 ------- 0 2.0 3.0 235 361
d 0.865853 0 1 tcp 1510 ------- 0 2.0 3.0 237 363
d 0.867061 0 1 tcp 1510 ------- 0 2.0 3.0 239 366
d 0.868269 0 1 tcp 1510 ------- 0 2.0 3.0 241 369
d 0.869477 0 1 tcp 1510 ------- 0 2.0 3.0 243 372
d 0.870685 0 1 tcp 1510 ------- 0 2.0 3.0 245 375
d 0.871893 0 1 tcp 1510 ------- 0 2.0 3.0 247 378
d 0.873101 0 1 tcp 1510 ------- 0 2.0 3.0 249 381
d 0.874309 0 1 tcp 1510 ------- 0 2.0 3.0 251 384
d 0.875517 0 1 tcp 1510 ------- 0 2.0 3.0 253 387
d 0.988246 0 1 tcp 1510 ------- 0 2.0 3.0 347 574
d 0.989454 0 1 tcp 1510 ------- 0 2.0 3.0 349 577
d 0.990662 0 1 tcp 1510 ------- 0 2.0 3.0 351 580
d 0.99187 0 1 tcp 1510 ------- 0 2.0 3.0 353 583
d 0.993078 0 1 tcp 1510 ------- 0 2.0 3.0 355 586
d 0.994286 0 1 tcp 1510 ------- 0 2.0 3.0 357 589
d 0.995494 0 1 tcp 1510 ------- 0 2.0 3.0 359 592
d 0.996702 0 1 tcp 1510 ------- 0 2.0 3.0 361 595
d 0.99791 0 1 tcp 1510 ------- 0 2.0 3.0 363 598
d 0.999118 0 1 tcp 1510 ------- 0 2.0 3.0 365 601
d 1.000326 0 1 tcp 1510 ------- 0 2.0 3.0 367 604
d 1.001534 0 1 tcp 1510 ------- 0 2.0 3.0 369 607
d 1.002742 0 1 tcp 1510 ------- 0 2.0 3.0 371 610
d 1.00395 0 1 tcp 1510 ------- 0 2.0 3.0 373 613
d 1.005158 0 1 tcp 1510 ------- 0 2.0 3.0 375 616
d 1.006366 0 1 tcp 1510 ------- 0 2.0 3.0 377 619
d 1.007574 0 1 tcp 1510 ------- 0 2.0 3.0 379 622
d 1.008782 0 1 tcp 1510 ------- 0 2.0 3.0 381 625
d 1.00999 0 1 tcp 1510 ------- 0 2.0 3.0 383 628
d 1.011198 0 1 tcp 1510 ------- 0 2.0 3.0 385 631
d 1.012406 0 1 tcp 1510 ------- 0 2.0 3.0 387 634
d 1.013614 0 1 tcp 1510 ------- 0 2.0 3.0 389 637
d 1.014822 0 1 tcp 1510 ------- 0 2.0 3.0 391 640
d 1.01603 0 1 tcp 1510 ------- 0 2.0 3.0 393 643
d 1.017238 0 1 tcp 1510 ------- 0 2.0 3.0 395 646
d 1.018446 0 1 tcp 1510 ------- 0 2.0 3.0 397 649
d 1.407422 0 1 tcp 1510 ------- 0 2.0 3.0 679 1294
d 1.427958 0 1 tcp 1510 ------- 0 2.0 3.0 697 1329
d 1.453326 0 1 tcp 1510 ------- 0 2.0 3.0 719 1372
d 1.478694 0 1 tcp 1510 ------- 0 2.0 3.0 741 1415
d 1.51131 0 1 tcp 1510 ------- 0 2.0 3.0 769 1470
d 1.545134 0 1 tcp 1510 ------- 0 2.0 3.0 798 1527
d 1.578958 0 1 tcp 1510 ------- 0 2.0 3.0 827 1584
d 8.242286 0 1 tcp 1510 ------- 0 2.0 3.0 6337 12617
d 8.34255 0 1 tcp 1510 ------- 0 2.0 3.0 6421 12784
d 11.13907 0 1 tcp 1510 ------- 0 2.0 3.0 8735 17415
d 15.707758 0 1 tcp 1510 ------- 1 4.0 5.0 31 24982
d 15.708966 0 1 tcp 1510 ------- 1 4.0 5.0 33 24985
d 15.710174 0 1 tcp 1510 ------- 1 4.0 5.0 35 24988
d 15.711382 0 1 tcp 1510 ------- 1 4.0 5.0 37 24991
d 15.71259 0 1 tcp 1510 ------- 1 4.0 5.0 39 24994
d 15.713798 0 1 tcp 1510 ------- 1 4.0 5.0 41 24997
d 15.715006 0 1 tcp 1510 ------- 1 4.0 5.0 43 25000
d 15.716214 0 1 tcp 1510 ------- 1 4.0 5.0 45 25003
d 15.717422 0 1 tcp 1510 ------- 1 4.0 5.0 47 25006
d 15.71863 0 1 tcp 1510 ------- 1 4.0 5.0 49 25009
d 15.719838 0 1 tcp 1510 ------- 1 4.0 5.0 51 25012
d 15.721046 0 1 tcp 1510 ------- 1 4.0 5.0 53 25015
d 15.722254 0 1 tcp 1510 ------- 1 4.0 5.0 55 25018
d 15.723462 0 1 tcp 1510 ------- 1 4.0 5.0 57 25021
d 15.72467 0 1 tcp 1510 ------- 1 4.0 5.0 59 25024
d 15.725878 0 1 tcp 1510 ------- 1 4.0 5.0 61 25027
d 15.89983 0 1 tcp 1510 ------- 1 4.0 5.0 63 25316
d 15.91193 0 1 tcp 1510 ------- 1 4.0 5.0 66 25337
d 15.913138 0 1 tcp 1510 ------- 1 4.0 5.0 67 25340
d 15.914346 0 1 tcp 1510 ------- 1 4.0 5.0 68 25343
d 15.915554 0 1 tcp 1510 ------- 1 4.0 5.0 69 25346
d 15.916762 0 1 tcp 1510 ------- 1 4.0 5.0 70 25349
d 15.91797 0 1 tcp 1510 ------- 1 4.0 5.0 71 25352
d 16.091922 0 1 tcp 1510 ------- 1 4.0 5.0 72 25641
d 16.09313 0 1 tcp 1510 ------- 1 4.0 5.0 73 25644
d 16.094338 0 1 tcp 1510 ------- 1 4.0 5.0 74 25647
d 16.11123 0 1 tcp 1510 ------- 0 2.0 3.0 12774 25676
d 16.287611 0 1 tcp 1510 ------- 1 4.0 5.0 66 25969
d 16.287623 0 1 tcp 1510 ------- 1 4.0 5.0 67 25970
d 16.287635 0 1 tcp 1510 ------- 1 4.0 5.0 68 25971
d 16.287648 0 1 tcp 1510 ------- 1 4.0 5.0 69 25972
d 16.28766 0 1 tcp 1510 ------- 1 4.0 5.0 70 25973
d 16.287672 0 1 tcp 1510 ------- 1 4.0 5.0 71 25974
d 16.287684 0 1 tcp 1510 ------- 1 4.0 5.0 91 25975
d 16.288819 0 1 tcp 1510 ------- 1 4.0 5.0 92 25978
d 16.290027 0 1 tcp 1510 ------- 1 4.0 5.0 93 25981
d 16.291235 0 1 tcp 1510 ------- 1 4.0 5.0 94 25984
d 17.837462 0 1 tcp 1510 ------- 0 2.0 3.0 14009 28545
d 17.951014 0 1 tcp 1510 ------- 0 2.0 3.0 14081 28734
d 21.477166 0 1 tcp 1510 ------- 1 4.0 5.0 822 34573
d 21.645078 0 1 tcp 1510 ------- 1 4.0 5.0 838 34852
d 21.657158 0 1 tcp 1510 ------- 1 4.0 5.0 849 34873
d 22.588526 0 1 tcp 1510 ------- 1 4.0 5.0 998 36416
d 22.726238 0 1 tcp 1510 ------- 0 2.0 3.0 17296 36645
d 22.780598 0 1 tcp 1510 ------- 1 4.0 5.0 1034 36736
d 25.668926 0 1 tcp 1510 ------- 1 4.0 5.0 1577 41519
d 27.344422 0 1 tcp 1510 ------- 1 4.0 5.0 1839 44294
d 28.476318 0 1 tcp 1510 ------- 1 4.0 5.0 2025 46169
d 28.64423 0 1 tcp 1510 ------- 0 2.0 3.0 21170 46448
