d 0.99187 0 1 tcp 1510 ------- 0 2.0 3.0 226 353
d 0.993078 0 1 tcp 1510 ------- 0 2.0 3.0 228 355
d 0.994286 0 1 tcp 1510 ------- 0 2.0 3.0 230 357
d 0.995494 0 1 tcp 1510 ------- 0 2.0 3.0 232 359
d 0.996702 0 1 tcp 1510 ------- 0 2.0 3.0 234 361
d 0.99791 0 1 tcp 1510 ------- 0 2.0 3.0 236 363
d 0.999118 0 1 tcp 1510 ------- 0 2.0 3.0 238 365
d 1.000326 0 1 tcp 1510 ------- 0 2.0 3.0 240 368
d 1.001522 0 1 tcp 1510 ------- 0 2.0 3.0 241 370
d 1.00273 0 1 tcp 1510 ------- 0 2.0 3.0 243 373
d 1.003938 0 1 tcp 1510 ------- 0 2.0 3.0 245 376
d 1.005146 0 1 tcp 1510 ------- 0 2.0 3.0 247 379
d 1.006354 0 1 tcp 1510 ------- 0 2.0 3.0 249 382
d 1.007562 0 1 tcp 1510 ------- 0 2.0 3.0 251 385
d 1.00877 0 1 tcp 1510 ------- 0 2.0 3.0 253 388
d 1.121511 0 1 tcp 1510 ------- 0 2.0 3.0 348 576
d 1.122719 0 1 tcp 1510 ------- 0 2.0 3.0 350 579
d 1.123927 0 1 tcp 1510 ------- 0 2.0 3.0 352 582
d 1.125135 0 1 tcp 1510 ------- 0 2.0 3.0 354 585
d 1.126343 0 1 tcp 1510 ------- 0 2.0 3.0 356 588
d 1.127551 0 1 tcp 1510 ------- 0 2.0 3.0 358 591
d 1.128759 0 1 tcp 1510 ------- 0 2.0 3.0 360 594
d 1.129967 0 1 tcp 1510 ------- 0 2.0 3.0 362 597
d 1.131175 0 1 tcp 1510 ------- 0 2.0 3.0 364 600
d 1.132383 0 1 tcp 1510 ------- 0 2.0 3.0 366 603
d 1.133591 0 1 tcp 1510 ------- 0 2.0 3.0 368 606
d 1.134799 0 1 tcp 1510 ------- 0 2.0 3.0 370 609
d 1.136007 0 1 tcp 1510 ------- 0 2.0 3.0 372 612
d 1.137215 0 1 tcp 1510 ------- 0 2.0 3.0 374 615
d 1.138423 0 1 tcp 1510 ------- 0 2.0 3.0 376 618
d 1.139631 0 1 tcp 1510 ------- 0 2.0 3.0 378 621
d 1.140839 0 1 tcp 1510 ------- 0 2.0 3.0 380 624
d 1.142047 0 1 tcp 1510 ------- 0 2.0 3.0 382 627
d 1.143255 0 1 tcp 1510 ------- 0 2.0 3.0 384 630
d 1.144463 0 1 tcp 1510 ------- 0 2.0 3.0 386 633
d 1.145671 0 1 tcp 1510 ------- 0 2.0 3.0 388 636
d 1.146879 0 1 tcp 1510 ------- 0 2.0 3.0 390 639
d 1.148087 0 1 tcp 1510 ------- 0 2.0 3.0 392 642
d 1.149295 0 1 tcp 1510 ------- 0 2.0 3.0 394 645
d 1.150503 0 1 tcp 1510 ------- 0 2.0 3.0 396 648
d 1.151711 0 1 tcp 1510 ------- 0 2.0 3.0 398 651
d 15.855068 0 1 tcp 1510 ------- 1 4.0 5.0 36 18850
d 15.856276 0 1 tcp 1510 ------- 1 4.0 5.0 38 18853
d 15.857484 0 1 tcp 1510 ------- 1 4.0 5.0 40 18856
d 15.858692 0 1 tcp 1510 ------- 1 4.0 5.0 42 18859
d 15.8599 0 1 tcp 1510 ------- 1 4.0 5.0 44 18862
d 15.861108 0 1 tcp 1510 ------- 1 4.0 5.0 46 18865
d 15.862316 0 1 tcp 1510 ------- 1 4.0 5.0 48 18868
d 15.863524 0 1 tcp 1510 ------- 1 4.0 5.0 50 18871
d 15.864732 0 1 tcp 1510 ------- 1 4.0 5.0 52 18874
d 15.86594 0 1 tcp 1510 ------- 1 4.0 5.0 54 18877
d 15.867148 0 1 tcp 1510 ------- 1 4.0 5.0 56 18880
d 15.868356 0 1 tcp 1510 ------- 1 4.0 5.0 58 18883
d 15.869564 0 1 tcp 1510 ------- 1 4.0 5.0 60 18886
d 15.870772 0 1 tcp 1510 ------- 1 4.0 5.0 62 18889
d 15.948084 0 1 tcp 1510 ------- 0 2.0 3.0 9408 19018
d 16.042308 0 1 tcp 1510 ------- 1 4.0 5.0 64 19175
d 16.043516 0 1 tcp 1510 ------- 1 4.0 5.0 66 19178
d 16.044724 0 1 tcp 1510 ------- 1 4.0 5.0 68 19181
d 16.045932 0 1 tcp 1510 ------- 1 4.0 5.0 70 19184
d 16.04714 0 1 tcp 1510 ------- 1 4.0 5.0 72 19187
d 22.936819 0 1 tcp 1510 ------- 0 2.0 3.0 13722 29778
d 23.113187 0 1 tcp 1510 ------- 1 4.0 5.0 1127 30071
d 29.470191 0 1 tcp 1510 ------- 1 4.0 5.0 2881 40090
d 29.598239 0 1 tcp 1510 ------- 0 2.0 3.0 17155 40303
