d 0.809678 0 1 tcp 1510 ------- 0 2.0 3.0 224 754
d 0.809946 0 1 tcp 1510 ------- 0 2.0 3.0 226 756
d 0.810215 0 1 tcp 1510 ------- 0 2.0 3.0 228 758
d 0.810483 0 1 tcp 1510 ------- 0 2.0 3.0 230 760
d 0.810752 0 1 tcp 1510 ------- 0 2.0 3.0 232 762
d 0.81102 0 1 tcp 1510 ------- 0 2.0 3.0 234 764
d 0.811289 0 1 tcp 1510 ------- 0 2.0 3.0 236 766
d 0.811557 0 1 tcp 1510 ------- 0 2.0 3.0 238 768
d 0.811825 0 1 tcp 1510 ------- 0 2.0 3.0 240 770
d 0.812094 0 1 tcp 1510 ------- 0 2.0 3.0 242 772
d 0.812362 0 1 tcp 1510 ------- 0 2.0 3.0 244 774
d 0.812631 0 1 tcp 1510 ------- 0 2.0 3.0 246 776
d 0.812899 0 1 tcp 1510 ------- 0 2.0 3.0 248 778
d 0.813168 0 1 tcp 1510 ------- 0 2.0 3.0 250 780
d 0.813436 0 1 tcp 1510 ------- 0 2.0 3.0 252 782
d 0.929999 0 1 tcp 1510 ------- 1 4.0 5.0 204 1135
d 0.930167 0 1 tcp 1510 ------- 0 2.0 3.0 264 1185
d 0.930179 0 1 tcp 1510 ------- 0 2.0 3.0 265 1186
d 0.930267 0 1 tcp 1510 ------- 1 4.0 5.0 206 1137
d 0.930435 0 1 tcp 1510 ------- 0 2.0 3.0 266 1189
d 0.930447 0 1 tcp 1510 ------- 0 2.0 3.0 267 1190
d 0.930536 0 1 tcp 1510 ------- 1 4.0 5.0 208 1139
d 0.930704 0 1 tcp 1510 ------- 0 2.0 3.0 268 1193
d 0.930716 0 1 tcp 1510 ------- 0 2.0 3.0 269 1194
d 0.930804 0 1 tcp 1510 ------- 1 4.0 5.0 210 1141
d 0.930972 0 1 tcp 1510 ------- 0 2.0 3.0 270 1197
d 0.930984 0 1 tcp 1510 ------- 0 2.0 3.0 271 1198
d 0.931072 0 1 tcp 1510 ------- 1 4.0 5.0 212 1143
d 0.93124 0 1 tcp 1510 ------- 0 2.0 3.0 272 1201
d 0.931253 0 1 tcp 1510 ------- 0 2.0 3.0 273 1202
d 0.931341 0 1 tcp 1510 ------- 1 4.0 5.0 214 1145
d 0.931509 0 1 tcp 1510 ------- 0 2.0 3.0 274 1205
d 0.931521 0 1 tcp 1510 ------- 0 2.0 3.0 275 1206
d 0.931609 0 1 tcp 1510 ------- 1 4.0 5.0 216 1147
d 0.931777 0 1 tcp 1510 ------- 0 2.0 3.0 276 1207
d 0.931789 0 1 tcp 1510 ------- 0 2.0 3.0 277 1208
d 0.931878 0 1 tcp 1510 ------- 1 4.0 5.0 218 1149
d 0.932046 0 1 tcp 1510 ------- 0 2.0 3.0 278 1209
d 0.932058 0 1 tcp 1510 ------- 0 2.0 3.0 279 1210
d 0.932146 0 1 tcp 1510 ------- 1 4.0 5.0 220 1151
d 0.932314 0 1 tcp 1510 ------- 0 2.0 3.0 280 1211
d 0.932326 0 1 tcp 1510 ------- 0 2.0 3.0 281 1212
d 0.932415 0 1 tcp 1510 ------- 1 4.0 5.0 222 1153
d 0.932583 0 1 tcp 1510 ------- 0 2.0 3.0 282 1213
d 0.932595 0 1 tcp 1510 ------- 0 2.0 3.0 283 1214
d 0.932683 0 1 tcp 1510 ------- 1 4.0 5.0 224 1155
d 0.932851 0 1 tcp 1510 ------- 0 2.0 3.0 284 1215
d 0.932863 0 1 tcp 1510 ------- 0 2.0 3.0 285 1216
d 0.932952 0 1 tcp 1510 ------- 1 4.0 5.0 226 1157
d 0.93312 0 1 tcp 1510 ------- 0 2.0 3.0 286 1217
d 0.933132 0 1 tcp 1510 ------- 0 2.0 3.0 287 1218
d 0.93322 0 1 tcp 1510 ------- 1 4.0 5.0 228 1159
d 0.933388 0 1 tcp 1510 ------- 0 2.0 3.0 288 1219
d 0.9334 0 1 tcp 1510 ------- 0 2.0 3.0 289 1220
d 0.933488 0 1 tcp 1510 ------- 1 4.0 5.0 230 1161
d 0.933656 0 1 tcp 1510 ------- 0 2.0 3.0 290 1221
d 0.933669 0 1 tcp 1510 ------- 0 2.0 3.0 291 1222
d 0.933757 0 1 tcp 1510 ------- 1 4.0 5.0 232 1163
d 0.933925 0 1 tcp 1510 ------- 0 2.0 3.0 292 1223
d 0.933937 0 1 tcp 1510 ------- 0 2.0 3.0 293 1224
d 0.934025 0 1 tcp 1510 ------- 1 4.0 5.0 234 1167
d 0.934193 0 1 tcp 1510 ------- 0 2.0 3.0 294 1225
d 0.934205 0 1 tcp 1510 ------- 0 2.0 3.0 295 1226
d 0.934294 0 1 tcp 1510 ------- 1 4.0 5.0 236 1171
d 0.934462 0 1 tcp 1510 ------- 0 2.0 3.0 296 1227
d 0.934474 0 1 tcp 1510 ------- 0 2.0 3.0 297 1228
d 0.934562 0 1 tcp 1510 ------- 1 4.0 5.0 238 1175
d 0.93473 0 1 tcp 1510 ------- 0 2.0 3.0 298 1229
d 0.934742 0 1 tcp 1510 ------- 0 2.0 3.0 299 1230
d 0.934831 0 1 tcp 1510 ------- 1 4.0 5.0 240 1179
d 0.934999 0 1 tcp 1510 ------- 0 2.0 3.0 300 1231
d 0.935011 0 1 tcp 1510 ------- 0 2.0 3.0 301 1232
d 0.935099 0 1 tcp 1510 ------- 1 4.0 5.0 242 1183
d 0.935267 0 1 tcp 1510 ------- 0 2.0 3.0 302 1233
d 0.935279 0 1 tcp 1510 ------- 0 2.0 3.0 303 1234
d 0.935368 0 1 tcp 1510 ------- 1 4.0 5.0 244 1187
d 0.935536 0 1 tcp 1510 ------- 0 2.0 3.0 304 1235
d 0.935548 0 1 tcp 1510 ------- 0 2.0 3.0 305 1236
d 0.935636 0 1 tcp 1510 ------- 1 4.0 5.0 246 1191
d 0.935804 0 1 tcp 1510 ------- 0 2.0 3.0 306 1237
d 0.935816 0 1 tcp 1510 ------- 0 2.0 3.0 307 1238
d 0.935904 0 1 tcp 1510 ------- 1 4.0 5.0 248 1195
d 0.936072 0 1 tcp 1510 ------- 0 2.0 3.0 308 1239
d 0.936085 0 1 tcp 1510 ------- 0 2.0 3.0 309 1240
d 0.936173 0 1 tcp 1510 ------- 1 4.0 5.0 250 1199
d 0.936341 0 1 tcp 1510 ------- 0 2.0 3.0 310 1241
d 0.936353 0 1 tcp 1510 ------- 0 2.0 3.0 311 1242
d 0.936441 0 1 tcp 1510 ------- 1 4.0 5.0 252 1203
d 0.936609 0 1 tcp 1510 ------- 0 2.0 3.0 312 1243
d 0.936621 0 1 tcp 1510 ------- 0 2.0 3.0 313 1244
d 0.93689 0 1 tcp 1510 ------- 0 2.0 3.0 315 1246
d 0.937158 0 1 tcp 1510 ------- 0 2.0 3.0 317 1248
d 0.937427 0 1 tcp 1510 ------- 0 2.0 3.0 319 1250
d 0.937695 0 1 tcp 1510 ------- 0 2.0 3.0 321 1252
d 0.937964 0 1 tcp 1510 ------- 0 2.0 3.0 323 1254
d 0.938232 0 1 tcp 1510 ------- 0 2.0 3.0 325 1256
d 0.938501 0 1 tcp 1510 ------- 0 2.0 3.0 327 1258
d 0.938769 0 1 tcp 1510 ------- 0 2.0 3.0 329 1260
d 0.939037 0 1 tcp 1510 ------- 0 2.0 3.0 331 1262
d 0.939306 0 1 tcp 1510 ------- 0 2.0 3.0 333 1264
d 0.939574 0 1 tcp 1510 ------- 0 2.0 3.0 335 1266
d 0.939843 0 1 tcp 1510 ------- 0 2.0 3.0 337 1268
d 0.940111 0 1 tcp 1510 ------- 0 2.0 3.0 339 1270
d 0.94038 0 1 tcp 1510 ------- 0 2.0 3.0 341 1272
d 0.940648 0 1 tcp 1510 ------- 0 2.0 3.0 343 1274
d 0.940917 0 1 tcp 1510 ------- 0 2.0 3.0 345 1276
d 0.941185 0 1 tcp 1510 ------- 0 2.0 3.0 347 1278
d 0.941453 0 1 tcp 1510 ------- 0 2.0 3.0 349 1280
d 0.941722 0 1 tcp 1510 ------- 0 2.0 3.0 351 1282
d 0.94199 0 1 tcp 1510 ------- 0 2.0 3.0 353 1284
d 0.942259 0 1 tcp 1510 ------- 0 2.0 3.0 355 1286
d 0.942527 0 1 tcp 1510 ------- 0 2.0 3.0 357 1288
d 0.942796 0 1 tcp 1510 ------- 0 2.0 3.0 359 1290
d 0.943064 0 1 tcp 1510 ------- 0 2.0 3.0 361 1292
d 0.943333 0 1 tcp 1510 ------- 0 2.0 3.0 363 1294
d 0.943601 0 1 tcp 1510 ------- 0 2.0 3.0 365 1296
d 0.943869 0 1 tcp 1510 ------- 0 2.0 3.0 367 1298
d 0.944138 0 1 tcp 1510 ------- 0 2.0 3.0 369 1300
d 0.944406 0 1 tcp 1510 ------- 0 2.0 3.0 371 1302
d 0.944675 0 1 tcp 1510 ------- 0 2.0 3.0 373 1304
d 0.944943 0 1 tcp 1510 ------- 0 2.0 3.0 375 1306
d 0.945212 0 1 tcp 1510 ------- 0 2.0 3.0 377 1308
d 0.94548 0 1 tcp 1510 ------- 0 2.0 3.0 379 1310
d 0.945749 0 1 tcp 1510 ------- 0 2.0 3.0 381 1312
d 0.946017 0 1 tcp 1510 ------- 0 2.0 3.0 383 1314
d 0.946285 0 1 tcp 1510 ------- 0 2.0 3.0 385 1316
d 0.946554 0 1 tcp 1510 ------- 0 2.0 3.0 387 1318
d 0.946822 0 1 tcp 1510 ------- 0 2.0 3.0 389 1320
d 0.947091 0 1 tcp 1510 ------- 0 2.0 3.0 391 1322
d 0.947359 0 1 tcp 1510 ------- 0 2.0 3.0 393 1324
d 0.947628 0 1 tcp 1510 ------- 0 2.0 3.0 395 1326
d 0.947896 0 1 tcp 1510 ------- 0 2.0 3.0 397 1328
d 1.057683 0 1 tcp 1510 ------- 2 6.0 7.0 224 1792
d 1.057952 0 1 tcp 1510 ------- 2 6.0 7.0 226 1794
d 1.05822 0 1 tcp 1510 ------- 2 6.0 7.0 228 1796
d 1.058488 0 1 tcp 1510 ------- 2 6.0 7.0 230 1798
d 1.058757 0 1 tcp 1510 ------- 2 6.0 7.0 232 1800
d 1.059025 0 1 tcp 1510 ------- 2 6.0 7.0 234 1802
d 1.059294 0 1 tcp 1510 ------- 2 6.0 7.0 236 1804
d 1.059562 0 1 tcp 1510 ------- 2 6.0 7.0 238 1806
d 1.059831 0 1 tcp 1510 ------- 2 6.0 7.0 240 1808
d 1.060099 0 1 tcp 1510 ------- 2 6.0 7.0 242 1810
d 1.060368 0 1 tcp 1510 ------- 2 6.0 7.0 244 1812
d 1.060636 0 1 tcp 1510 ------- 2 6.0 7.0 246 1814
d 1.060904 0 1 tcp 1510 ------- 2 6.0 7.0 248 1816
d 1.061173 0 1 tcp 1510 ------- 2 6.0 7.0 250 1818
d 1.061441 0 1 tcp 1510 ------- 2 6.0 7.0 252 1820
d 1.080432 0 1 tcp 1510 ------- 1 4.0 5.0 319 1950
d 1.0807 0 1 tcp 1510 ------- 1 4.0 5.0 321 1953
d 1.080969 0 1 tcp 1510 ------- 1 4.0 5.0 323 1956
d 1.081237 0 1 tcp 1510 ------- 1 4.0 5.0 325 1959
d 1.081506 0 1 tcp 1510 ------- 1 4.0 5.0 327 1962
d 1.081774 0 1 tcp 1510 ------- 1 4.0 5.0 329 1965
d 1.082043 0 1 tcp 1510 ------- 1 4.0 5.0 331 1968
d 1.082181 0 1 tcp 1510 ------- 0 2.0 3.0 265 2008
d 1.082193 0 1 tcp 1510 ------- 0 2.0 3.0 266 2009
d 1.082205 0 1 tcp 1510 ------- 0 2.0 3.0 267 2010
d 1.082217 0 1 tcp 1510 ------- 0 2.0 3.0 268 2011
d 1.082229 0 1 tcp 1510 ------- 0 2.0 3.0 269 2012
d 1.082241 0 1 tcp 1510 ------- 0 2.0 3.0 270 2013
d 1.082253 0 1 tcp 1510 ------- 0 2.0 3.0 271 2014
d 1.082265 0 1 tcp 1510 ------- 0 2.0 3.0 272 2015
d 1.082277 0 1 tcp 1510 ------- 0 2.0 3.0 273 2016
d 1.082289 0 1 tcp 1510 ------- 0 2.0 3.0 274 2017
d 1.082299 0 1 tcp 1510 ------- 1 4.0 5.0 332 1969
d 1.082301 0 1 tcp 1510 ------- 0 2.0 3.0 275 2018
d 1.082311 0 1 tcp 1510 ------- 1 4.0 5.0 333 1970
d 1.082314 0 1 tcp 1510 ------- 0 2.0 3.0 276 2019
d 1.082326 0 1 tcp 1510 ------- 0 2.0 3.0 277 2020
d 1.082338 0 1 tcp 1510 ------- 0 2.0 3.0 278 2021
d 1.08235 0 1 tcp 1510 ------- 0 2.0 3.0 279 2022
d 1.082362 0 1 tcp 1510 ------- 0 2.0 3.0 280 2023
d 1.082374 0 1 tcp 1510 ------- 0 2.0 3.0 281 2024
d 1.082398 0 1 tcp 1510 ------- 0 2.0 3.0 283 2026
d 1.08241 0 1 tcp 1510 ------- 0 2.0 3.0 284 2027
d 1.082422 0 1 tcp 1510 ------- 0 2.0 3.0 285 2028
d 1.082434 0 1 tcp 1510 ------- 0 2.0 3.0 286 2029
d 1.082446 0 1 tcp 1510 ------- 0 2.0 3.0 287 2030
d 1.082459 0 1 tcp 1510 ------- 0 2.0 3.0 288 2031
d 1.082471 0 1 tcp 1510 ------- 0 2.0 3.0 289 2032
d 1.082483 0 1 tcp 1510 ------- 0 2.0 3.0 290 2033
d 1.082495 0 1 tcp 1510 ------- 0 2.0 3.0 291 2036
d 1.082507 0 1 tcp 1510 ------- 0 2.0 3.0 292 2037
d 1.082519 0 1 tcp 1510 ------- 0 2.0 3.0 293 2038
d 1.082567 0 1 tcp 1510 ------- 1 4.0 5.0 334 1971
d 1.08258 0 1 tcp 1510 ------- 1 4.0 5.0 335 1972
d 1.082718 0 1 tcp 1510 ------- 0 2.0 3.0 295 2042
d 1.082836 0 1 tcp 1510 ------- 1 4.0 5.0 336 1973
d 1.082848 0 1 tcp 1510 ------- 1 4.0 5.0 337 1974
d 1.082986 0 1 tcp 1510 ------- 0 2.0 3.0 297 2046
d 1.083104 0 1 tcp 1510 ------- 1 4.0 5.0 338 1975
d 1.083116 0 1 tcp 1510 ------- 1 4.0 5.0 339 1976
d 1.083254 0 1 tcp 1510 ------- 0 2.0 3.0 299 2050
d 1.083373 0 1 tcp 1510 ------- 1 4.0 5.0 340 1977
d 1.083385 0 1 tcp 1510 ------- 1 4.0 5.0 341 1978
d 1.083523 0 1 tcp 1510 ------- 0 2.0 3.0 301 2054
d 1.083641 0 1 tcp 1510 ------- 1 4.0 5.0 342 1979
d 1.083653 0 1 tcp 1510 ------- 1 4.0 5.0 343 1980
d 1.083791 0 1 tcp 1510 ------- 0 2.0 3.0 303 2058
d 1.08391 0 1 tcp 1510 ------- 1 4.0 5.0 344 1981
d 1.083922 0 1 tcp 1510 ------- 1 4.0 5.0 345 1982
d 1.08406 0 1 tcp 1510 ------- 0 2.0 3.0 305 2062
d 1.084178 0 1 tcp 1510 ------- 1 4.0 5.0 346 1983
d 1.08419 0 1 tcp 1510 ------- 1 4.0 5.0 347 1984
d 1.084328 0 1 tcp 1510 ------- 0 2.0 3.0 307 2066
d 1.084447 0 1 tcp 1510 ------- 1 4.0 5.0 348 1985
d 1.084459 0 1 tcp 1510 ------- 1 4.0 5.0 349 1986
d 1.084597 0 1 tcp 1510 ------- 0 2.0 3.0 309 2070
d 1.084715 0 1 tcp 1510 ------- 1 4.0 5.0 350 1987
d 1.084727 0 1 tcp 1510 ------- 1 4.0 5.0 351 1988
d 1.084865 0 1 tcp 1510 ------- 0 2.0 3.0 311 2074
d 1.084983 0 1 tcp 1510 ------- 1 4.0 5.0 352 1989
d 1.084996 0 1 tcp 1510 ------- 1 4.0 5.0 353 1990
d 1.085134 0 1 tcp 1510 ------- 0 2.0 3.0 313 2078
d 1.085252 0 1 tcp 1510 ------- 1 4.0 5.0 354 1991
d 1.085264 0 1 tcp 1510 ------- 1 4.0 5.0 355 1992
d 1.085402 0 1 tcp 1510 ------- 0 2.0 3.0 317 2082
d 1.08552 0 1 tcp 1510 ------- 1 4.0 5.0 356 1993
d 1.085532 0 1 tcp 1510 ------- 1 4.0 5.0 357 1994
d 1.08567 0 1 tcp 1510 ------- 0 2.0 3.0 321 2084
d 1.085789 0 1 tcp 1510 ------- 1 4.0 5.0 358 1995
d 1.085801 0 1 tcp 1510 ------- 1 4.0 5.0 359 1996
d 1.085939 0 1 tcp 1510 ------- 0 2.0 3.0 325 2086
d 1.086057 0 1 tcp 1510 ------- 1 4.0 5.0 360 1997
d 1.086069 0 1 tcp 1510 ------- 1 4.0 5.0 361 1998
d 1.086207 0 1 tcp 1510 ------- 0 2.0 3.0 329 2090
d 1.086326 0 1 tcp 1510 ------- 1 4.0 5.0 362 1999
d 1.086338 0 1 tcp 1510 ------- 1 4.0 5.0 363 2000
d 1.086476 0 1 tcp 1510 ------- 0 2.0 3.0 333 2094
d 1.086594 0 1 tcp 1510 ------- 1 4.0 5.0 364 2001
d 1.086606 0 1 tcp 1510 ------- 1 4.0 5.0 365 2002
d 1.086744 0 1 tcp 1510 ------- 0 2.0 3.0 337 2096
d 1.086863 0 1 tcp 1510 ------- 1 4.0 5.0 366 2003
d 1.086875 0 1 tcp 1510 ------- 1 4.0 5.0 367 2004
d 1.087013 0 1 tcp 1510 ------- 0 2.0 3.0 341 2098
d 1.087131 0 1 tcp 1510 ------- 1 4.0 5.0 368 2005
d 1.087143 0 1 tcp 1510 ------- 1 4.0 5.0 369 2006
d 1.087281 0 1 tcp 1510 ------- 0 2.0 3.0 345 2101
d 1.087399 0 1 tcp 1510 ------- 1 4.0 5.0 370 2034
d 1.087412 0 1 tcp 1510 ------- 1 4.0 5.0 371 2035
d 1.08755 0 1 tcp 1510 ------- 0 2.0 3.0 349 2104
d 1.087668 0 1 tcp 1510 ------- 1 4.0 5.0 372 2039
d 1.08768 0 1 tcp 1510 ------- 1 4.0 5.0 373 2040
d 1.087818 0 1 tcp 1510 ------- 0 2.0 3.0 429 2106
d 1.087936 0 1 tcp 1510 ------- 1 4.0 5.0 374 2043
d 1.087948 0 1 tcp 1510 ------- 1 4.0 5.0 375 2044
d 1.088086 0 1 tcp 1510 ------- 0 2.0 3.0 430 2108
d 1.088205 0 1 tcp 1510 ------- 1 4.0 5.0 376 2047
d 1.088217 0 1 tcp 1510 ------- 1 4.0 5.0 377 2048
d 1.088355 0 1 tcp 1510 ------- 0 2.0 3.0 431 2111
d 1.088473 0 1 tcp 1510 ------- 1 4.0 5.0 378 2051
d 1.088485 0 1 tcp 1510 ------- 1 4.0 5.0 379 2052
d 1.088623 0 1 tcp 1510 ------- 0 2.0 3.0 432 2114
d 1.088742 0 1 tcp 1510 ------- 1 4.0 5.0 380 2055
d 1.088754 0 1 tcp 1510 ------- 1 4.0 5.0 381 2056
d 1.088892 0 1 tcp 1510 ------- 0 2.0 3.0 433 2116
d 1.08901 0 1 tcp 1510 ------- 1 4.0 5.0 382 2059
d 1.089022 0 1 tcp 1510 ------- 1 4.0 5.0 383 2060
d 1.08916 0 1 tcp 1510 ------- 0 2.0 3.0 434 2118
d 1.089279 0 1 tcp 1510 ------- 1 4.0 5.0 384 2063
d 1.089291 0 1 tcp 1510 ------- 1 4.0 5.0 385 2064
d 1.089429 0 1 tcp 1510 ------- 0 2.0 3.0 435 2121
d 1.089547 0 1 tcp 1510 ------- 1 4.0 5.0 386 2067
d 1.089559 0 1 tcp 1510 ------- 1 4.0 5.0 387 2068
d 1.089697 0 1 tcp 1510 ------- 0 2.0 3.0 436 2124
d 1.089815 0 1 tcp 1510 ------- 1 4.0 5.0 388 2071
d 1.089828 0 1 tcp 1510 ------- 1 4.0 5.0 389 2072
d 1.089966 0 1 tcp 1510 ------- 0 2.0 3.0 437 2126
d 1.090084 0 1 tcp 1510 ------- 1 4.0 5.0 390 2075
d 1.090096 0 1 tcp 1510 ------- 1 4.0 5.0 391 2076
d 1.090234 0 1 tcp 1510 ------- 0 2.0 3.0 438 2128
d 1.090352 0 1 tcp 1510 ------- 1 4.0 5.0 392 2079
d 1.090364 0 1 tcp 1510 ------- 1 4.0 5.0 393 2080
d 1.090502 0 1 tcp 1510 ------- 0 2.0 3.0 439 2131
d 1.090771 0 1 tcp 1510 ------- 0 2.0 3.0 440 2134
d 1.091039 0 1 tcp 1510 ------- 0 2.0 3.0 441 2137
d 1.091158 0 1 tcp 1510 ------- 1 4.0 5.0 394 2087
d 1.09117 0 1 tcp 1510 ------- 1 4.0 5.0 395 2088
d 1.091308 0 1 tcp 1510 ------- 0 2.0 3.0 442 2140
d 1.091426 0 1 tcp 1510 ------- 1 4.0 5.0 396 2091
d 1.091438 0 1 tcp 1510 ------- 1 4.0 5.0 397 2092
d 1.091576 0 1 tcp 1510 ------- 0 2.0 3.0 443 2143
d 1.091845 0 1 tcp 1510 ------- 0 2.0 3.0 444 2146
d 1.092113 0 1 tcp 1510 ------- 0 2.0 3.0 445 2149
d 1.092231 0 1 tcp 1510 ------- 1 4.0 5.0 398 2099
d 1.092382 0 1 tcp 1510 ------- 0 2.0 3.0 446 2152
d 1.0925 0 1 tcp 1510 ------- 1 4.0 5.0 399 2102
d 1.09265 0 1 tcp 1510 ------- 0 2.0 3.0 447 2155
d 1.092918 0 1 tcp 1510 ------- 0 2.0 3.0 448 2158
d 1.093187 0 1 tcp 1510 ------- 0 2.0 3.0 449 2161
d 1.093305 0 1 tcp 1510 ------- 1 4.0 5.0 400 2109
d 1.093455 0 1 tcp 1510 ------- 0 2.0 3.0 450 2164
d 1.093574 0 1 tcp 1510 ------- 1 4.0 5.0 401 2112
d 1.093724 0 1 tcp 1510 ------- 0 2.0 3.0 451 2167
d 1.094261 0 1 tcp 1510 ------- 0 2.0 3.0 453 2172
d 1.094379 0 1 tcp 1510 ------- 1 4.0 5.0 402 2119
d 1.094647 0 1 tcp 1510 ------- 1 4.0 5.0 403 2122
d 1.095454 0 1 tcp 1510 ------- 1 4.0 5.0 404 2129
d 1.095724 0 1 tcp 1510 ------- 1 4.0 5.0 405 2132
d 1.095994 0 1 tcp 1510 ---A--- 1 4.0 5.0 204 2135
d 1.096263 0 1 tcp 1510 ------- 1 4.0 5.0 206 2138
d 1.096531 0 1 tcp 1510 ------- 1 4.0 5.0 208 2141
d 1.0968 0 1 tcp 1510 ------- 1 4.0 5.0 210 2144
d 1.097068 0 1 tcp 1510 ------- 1 4.0 5.0 212 2147
d 1.097337 0 1 tcp 1510 ------- 1 4.0 5.0 214 2150
d 1.097605 0 1 tcp 1510 ------- 1 4.0 5.0 216 2153
d 1.097873 0 1 tcp 1510 ------- 1 4.0 5.0 218 2156
d 1.098142 0 1 tcp 1510 ------- 1 4.0 5.0 220 2159
d 1.09841 0 1 tcp 1510 ------- 1 4.0 5.0 222 2162
d 1.098679 0 1 tcp 1510 ------- 1 4.0 5.0 224 2165
d 1.098947 0 1 tcp 1510 ------- 1 4.0 5.0 226 2168
d 1.099216 0 1 tcp 1510 ------- 1 4.0 5.0 228 2170
d 1.099484 0 1 tcp 1510 ------- 1 4.0 5.0 230 2173
d 1.099753 0 1 tcp 1510 ------- 1 4.0 5.0 232 2175
d 1.100021 0 1 tcp 1510 ------- 1 4.0 5.0 234 2177
d 1.100289 0 1 tcp 1510 ------- 1 4.0 5.0 236 2179
d 1.100558 0 1 tcp 1510 ------- 1 4.0 5.0 238 2181
d 1.100826 0 1 tcp 1510 ------- 1 4.0 5.0 240 2183
d 1.101095 0 1 tcp 1510 ------- 1 4.0 5.0 242 2185
d 1.101363 0 1 tcp 1510 ------- 1 4.0 5.0 244 2187
d 1.101632 0 1 tcp 1510 ------- 1 4.0 5.0 246 2189
d 1.1019 0 1 tcp 1510 ------- 1 4.0 5.0 248 2191
d 1.184279 0 1 tcp 1510 ------- 3 8.0 9.0 224 2536
d 1.184547 0 1 tcp 1510 ------- 3 8.0 9.0 226 2539
d 1.184815 0 1 tcp 1510 ------- 3 8.0 9.0 228 2542
d 1.185084 0 1 tcp 1510 ------- 3 8.0 9.0 230 2545
d 1.185352 0 1 tcp 1510 ------- 3 8.0 9.0 232 2548
d 1.185621 0 1 tcp 1510 ------- 3 8.0 9.0 234 2551
d 1.185889 0 1 tcp 1510 ------- 3 8.0 9.0 236 2554
d 1.186158 0 1 tcp 1510 ------- 3 8.0 9.0 238 2557
d 1.186426 0 1 tcp 1510 ------- 3 8.0 9.0 240 2560
d 1.186695 0 1 tcp 1510 ------- 3 8.0 9.0 242 2563
d 1.186963 0 1 tcp 1510 ------- 3 8.0 9.0 244 2566
d 1.187231 0 1 tcp 1510 ------- 3 8.0 9.0 246 2569
d 1.1875 0 1 tcp 1510 ------- 3 8.0 9.0 248 2572
d 1.187768 0 1 tcp 1510 ------- 3 8.0 9.0 250 2575
d 1.188037 0 1 tcp 1510 ------- 3 8.0 9.0 252 2578
d 1.228143 0 1 tcp 1510 ------- 0 2.0 3.0 268 2792
d 1.228156 0 1 tcp 1510 ------- 0 2.0 3.0 269 2793
d 1.228168 0 1 tcp 1510 ------- 0 2.0 3.0 270 2794
d 1.22818 0 1 tcp 1510 ------- 0 2.0 3.0 271 2795
d 1.228192 0 1 tcp 1510 ------- 0 2.0 3.0 272 2796
d 1.228204 0 1 tcp 1510 ------- 0 2.0 3.0 273 2797
d 1.228216 0 1 tcp 1510 ------- 0 2.0 3.0 274 2798
d 1.228228 0 1 tcp 1510 ------- 0 2.0 3.0 275 2799
d 1.22824 0 1 tcp 1510 ------- 0 2.0 3.0 276 2800
d 1.228242 0 1 tcp 1510 ------- 1 4.0 5.0 252 2750
d 1.228252 0 1 tcp 1510 ------- 0 2.0 3.0 277 2801
d 1.228264 0 1 tcp 1510 ------- 0 2.0 3.0 498 2802
d 1.228373 0 1 tcp 1510 ------- 2 6.0 7.0 340 2711
d 1.228385 0 1 tcp 1510 ------- 2 6.0 7.0 341 2712
d 1.228388 0 1 tcp 1510 ------- 0 2.0 3.0 279 2805
d 1.2284 0 1 tcp 1510 ------- 0 2.0 3.0 280 2806
d 1.228412 0 1 tcp 1510 ------- 0 2.0 3.0 281 2807
d 1.228424 0 1 tcp 1510 ------- 0 2.0 3.0 283 2808
d 1.228436 0 1 tcp 1510 ------- 0 2.0 3.0 284 2809
d 1.228448 0 1 tcp 1510 ------- 0 2.0 3.0 285 2810
d 1.22846 0 1 tcp 1510 ------- 0 2.0 3.0 286 2811
d 1.228472 0 1 tcp 1510 ------- 0 2.0 3.0 287 2812
d 1.228484 0 1 tcp 1510 ------- 0 2.0 3.0 288 2813
d 1.228496 0 1 tcp 1510 ------- 0 2.0 3.0 289 2814
d 1.228509 0 1 tcp 1510 ------- 0 2.0 3.0 499 2815
d 1.228641 0 1 tcp 1510 ------- 2 6.0 7.0 342 2713
d 1.228653 0 1 tcp 1510 ------- 2 6.0 7.0 343 2714
d 1.228656 0 1 tcp 1510 ------- 0 2.0 3.0 291 2819
d 1.228668 0 1 tcp 1510 ------- 0 2.0 3.0 500 2820
d 1.228779 0 1 tcp 1510 ------- 1 4.0 5.0 406 2755
d 1.22891 0 1 tcp 1510 ------- 2 6.0 7.0 344 2715
d 1.228922 0 1 tcp 1510 ------- 2 6.0 7.0 345 2716
d 1.228925 0 1 tcp 1510 ------- 0 2.0 3.0 293 2823
d 1.228937 0 1 tcp 1510 ------- 0 2.0 3.0 501 2824
d 1.229178 0 1 tcp 1510 ------- 2 6.0 7.0 346 2717
d 1.22919 0 1 tcp 1510 ------- 2 6.0 7.0 347 2718
d 1.229193 0 1 tcp 1510 ------- 0 2.0 3.0 502 2828
d 1.229316 0 1 tcp 1510 ------- 1 4.0 5.0 407 2760
d 1.229447 0 1 tcp 1510 ------- 2 6.0 7.0 348 2719
d 1.229459 0 1 tcp 1510 ------- 2 6.0 7.0 349 2720
d 1.229462 0 1 tcp 1510 ------- 0 2.0 3.0 503 2831
d 1.229715 0 1 tcp 1510 ------- 2 6.0 7.0 350 2721
d 1.229727 0 1 tcp 1510 ------- 2 6.0 7.0 351 2722
d 1.22973 0 1 tcp 1510 ------- 0 2.0 3.0 504 2834
d 1.229983 0 1 tcp 1510 ------- 2 6.0 7.0 352 2723
d 1.229996 0 1 tcp 1510 ------- 2 6.0 7.0 353 2724
d 1.229998 0 1 tcp 1510 ------- 0 2.0 3.0 505 2838
d 1.230121 0 1 tcp 1510 ------- 1 4.0 5.0 408 2767
d 1.230252 0 1 tcp 1510 ------- 2 6.0 7.0 354 2725
d 1.230264 0 1 tcp 1510 ------- 2 6.0 7.0 355 2726
d 1.230267 0 1 tcp 1510 ------- 0 2.0 3.0 506 2841
d 1.23052 0 1 tcp 1510 ------- 2 6.0 7.0 356 2727
d 1.230532 0 1 tcp 1510 ------- 2 6.0 7.0 357 2728
d 1.230535 0 1 tcp 1510 ------- 0 2.0 3.0 507 2845
d 1.230658 0 1 tcp 1510 ------- 1 4.0 5.0 409 2772
d 1.230789 0 1 tcp 1510 ------- 2 6.0 7.0 358 2729
d 1.230801 0 1 tcp 1510 ------- 2 6.0 7.0 359 2730
d 1.230804 0 1 tcp 1510 ------- 0 2.0 3.0 508 2848
d 1.231057 0 1 tcp 1510 ------- 2 6.0 7.0 360 2731
d 1.231069 0 1 tcp 1510 ------- 2 6.0 7.0 361 2732
d 1.231072 0 1 tcp 1510 ------- 0 2.0 3.0 509 2852
d 1.231195 0 1 tcp 1510 ------- 1 4.0 5.0 410 2776
d 1.231326 0 1 tcp 1510 ------- 2 6.0 7.0 362 2733
d 1.231338 0 1 tcp 1510 ------- 2 6.0 7.0 363 2734
d 1.231341 0 1 tcp 1510 ------- 0 2.0 3.0 510 2855
d 1.231594 0 1 tcp 1510 ------- 2 6.0 7.0 364 2735
d 1.231606 0 1 tcp 1510 ------- 2 6.0 7.0 365 2736
d 1.231609 0 1 tcp 1510 ------- 0 2.0 3.0 511 2859
d 1.231732 0 1 tcp 1510 ------- 1 4.0 5.0 411 2779
d 1.231863 0 1 tcp 1510 ------- 2 6.0 7.0 366 2737
d 1.231875 0 1 tcp 1510 ------- 2 6.0 7.0 367 2738
d 1.231878 0 1 tcp 1510 ------- 0 2.0 3.0 512 2862
d 1.232131 0 1 tcp 1510 ------- 2 6.0 7.0 368 2739
d 1.232143 0 1 tcp 1510 ------- 2 6.0 7.0 369 2740
d 1.232146 0 1 tcp 1510 ------- 0 2.0 3.0 513 2866
d 1.232399 0 1 tcp 1510 ------- 2 6.0 7.0 370 2741
d 1.232412 0 1 tcp 1510 ------- 2 6.0 7.0 371 2742
d 1.232414 0 1 tcp 1510 ------- 0 2.0 3.0 514 2870
d 1.232537 0 1 tcp 1510 ------- 1 4.0 5.0 412 2783
d 1.232668 0 1 tcp 1510 ------- 2 6.0 7.0 372 2743
d 1.23268 0 1 tcp 1510 ------- 2 6.0 7.0 373 2744
d 1.232683 0 1 tcp 1510 ------- 0 2.0 3.0 515 2874
d 1.232936 0 1 tcp 1510 ------- 2 6.0 7.0 374 2746
d 1.232948 0 1 tcp 1510 ------- 2 6.0 7.0 375 2747
d 1.232951 0 1 tcp 1510 ------- 0 2.0 3.0 516 2878
d 1.233074 0 1 tcp 1510 ------- 1 4.0 5.0 413 2788
d 1.233205 0 1 tcp 1510 ------- 2 6.0 7.0 376 2748
d 1.233217 0 1 tcp 1510 ------- 2 6.0 7.0 377 2749
d 1.23322 0 1 tcp 1510 ------- 0 2.0 3.0 517 2882
d 1.233473 0 1 tcp 1510 ------- 2 6.0 7.0 378 2751
d 1.233485 0 1 tcp 1510 ------- 2 6.0 7.0 379 2752
d 1.233488 0 1 tcp 1510 ------- 0 2.0 3.0 518 2886
d 1.233611 0 1 tcp 1510 ------- 1 4.0 5.0 414 2817
d 1.233742 0 1 tcp 1510 ------- 2 6.0 7.0 380 2753
d 1.233754 0 1 tcp 1510 ------- 2 6.0 7.0 381 2754
d 1.23401 0 1 tcp 1510 ------- 2 6.0 7.0 382 2756
d 1.234022 0 1 tcp 1510 ------- 2 6.0 7.0 383 2757
d 1.234025 0 1 tcp 1510 ------- 0 2.0 3.0 520 2893
d 1.234148 0 1 tcp 1510 ------- 1 4.0 5.0 415 2826
d 1.234279 0 1 tcp 1510 ------- 2 6.0 7.0 384 2758
d 1.234291 0 1 tcp 1510 ------- 2 6.0 7.0 385 2759
d 1.234547 0 1 tcp 1510 ------- 2 6.0 7.0 386 2761
d 1.234559 0 1 tcp 1510 ------- 2 6.0 7.0 387 2762
d 1.234562 0 1 tcp 1510 ------- 0 2.0 3.0 522 2900
d 1.234815 0 1 tcp 1510 ------- 2 6.0 7.0 388 2763
d 1.234828 0 1 tcp 1510 ------- 2 6.0 7.0 389 2764
d 1.234953 0 1 tcp 1510 ------- 1 4.0 5.0 416 2836
d 1.235084 0 1 tcp 1510 ------- 2 6.0 7.0 390 2765
d 1.235096 0 1 tcp 1510 ------- 2 6.0 7.0 391 2766
d 1.235352 0 1 tcp 1510 ------- 2 6.0 7.0 392 2768
d 1.235364 0 1 tcp 1510 ------- 2 6.0 7.0 393 2769
d 1.23549 0 1 tcp 1510 ------- 1 4.0 5.0 417 2843
d 1.235621 0 1 tcp 1510 ------- 2 6.0 7.0 394 2770
d 1.235633 0 1 tcp 1510 ------- 2 6.0 7.0 395 2771
d 1.235889 0 1 tcp 1510 ------- 2 6.0 7.0 396 2773
d 1.235901 0 1 tcp 1510 ------- 2 6.0 7.0 397 2774
d 1.236027 0 1 tcp 1510 ------- 1 4.0 5.0 418 2850
d 1.236158 0 1 tcp 1510 ------- 2 6.0 7.0 398 2775
d 1.236426 0 1 tcp 1510 ------- 2 6.0 7.0 399 2777
d 1.236564 0 1 tcp 1510 ------- 1 4.0 5.0 419 2857
d 1.236695 0 1 tcp 1510 ------- 2 6.0 7.0 400 2778
d 1.236963 0 1 tcp 1510 ------- 2 6.0 7.0 401 2780
d 1.237101 0 1 tcp 1510 ------- 1 4.0 5.0 420 2864
d 1.237231 0 1 tcp 1510 ------- 2 6.0 7.0 402 2781
d 1.237369 0 1 tcp 1510 ------- 1 4.0 5.0 421 2868
d 1.2375 0 1 tcp 1510 ------- 2 6.0 7.0 403 2782
d 1.237638 0 1 tcp 1510 ------- 1 4.0 5.0 422 2872
d 1.237768 0 1 tcp 1510 ------- 2 6.0 7.0 404 2785
d 1.237906 0 1 tcp 1510 ------- 1 4.0 5.0 423 2876
d 1.238037 0 1 tcp 1510 ------- 2 6.0 7.0 405 2787
d 1.238175 0 1 tcp 1510 ------- 1 4.0 5.0 424 2880
d 1.238305 0 1 tcp 1510 ------- 2 6.0 7.0 406 2803
d 1.238443 0 1 tcp 1510 ------- 1 4.0 5.0 425 2884
d 1.238574 0 1 tcp 1510 ------- 2 6.0 7.0 407 2816
d 1.238712 0 1 tcp 1510 ------- 1 4.0 5.0 426 2888
d 1.238842 0 1 tcp 1510 ------- 2 6.0 7.0 408 2821
d 1.23898 0 1 tcp 1510 ------- 1 4.0 5.0 427 2891
d 1.239111 0 1 tcp 1510 ------- 2 6.0 7.0 409 2825
d 1.239249 0 1 tcp 1510 ------- 1 4.0 5.0 428 2895
d 1.239379 0 1 tcp 1510 ------- 2 6.0 7.0 410 2829
d 1.239394 0 1 tcp 1510 ------- 0 2.0 3.0 430 2946
d 1.239406 0 1 tcp 1510 ------- 0 2.0 3.0 431 2947
d 1.239418 0 1 tcp 1510 ------- 0 2.0 3.0 432 2948
d 1.23943 0 1 tcp 1510 ------- 0 2.0 3.0 433 2949
d 1.239442 0 1 tcp 1510 ------- 0 2.0 3.0 434 2950
d 1.239454 0 1 tcp 1510 ------- 0 2.0 3.0 435 2951
d 1.239466 0 1 tcp 1510 ------- 0 2.0 3.0 436 2952
d 1.239479 0 1 tcp 1510 ------- 0 2.0 3.0 437 2953
d 1.239491 0 1 tcp 1510 ------- 0 2.0 3.0 438 2954
d 1.239503 0 1 tcp 1510 ------- 0 2.0 3.0 439 2955
d 1.239515 0 1 tcp 1510 ------- 0 2.0 3.0 440 2956
d 1.239517 0 1 tcp 1510 ------- 1 4.0 5.0 429 2898
d 1.239527 0 1 tcp 1510 ------- 0 2.0 3.0 441 2957
d 1.239539 0 1 tcp 1510 ------- 0 2.0 3.0 442 2958
d 1.239551 0 1 tcp 1510 ------- 0 2.0 3.0 443 2959
d 1.239563 0 1 tcp 1510 ------- 0 2.0 3.0 444 2960
d 1.239575 0 1 tcp 1510 ------- 0 2.0 3.0 445 2961
d 1.239587 0 1 tcp 1510 ------- 0 2.0 3.0 446 2962
d 1.239599 0 1 tcp 1510 ------- 0 2.0 3.0 447 2963
d 1.239611 0 1 tcp 1510 ------- 0 2.0 3.0 448 2964
d 1.239624 0 1 tcp 1510 ------- 0 2.0 3.0 540 2965
d 1.239647 0 1 tcp 1510 ------- 2 6.0 7.0 411 2832
d 1.239785 0 1 tcp 1510 ------- 1 4.0 5.0 430 2902
d 1.239916 0 1 tcp 1510 ------- 2 6.0 7.0 412 2835
d 1.239931 0 1 tcp 1510 ------- 0 2.0 3.0 450 2970
d 1.239943 0 1 tcp 1510 ------- 0 2.0 3.0 542 2971
d 1.240054 0 1 tcp 1510 ------- 1 4.0 5.0 431 2905
d 1.240184 0 1 tcp 1510 ------- 2 6.0 7.0 413 2839
d 1.240199 0 1 tcp 1510 ------- 0 2.0 3.0 543 2974
d 1.240322 0 1 tcp 1510 ------- 1 4.0 5.0 432 2908
d 1.240453 0 1 tcp 1510 ------- 2 6.0 7.0 414 2842
d 1.240591 0 1 tcp 1510 ------- 1 4.0 5.0 433 2911
d 1.240721 0 1 tcp 1510 ------- 2 6.0 7.0 415 2846
d 1.240736 0 1 tcp 1510 ------- 0 2.0 3.0 545 2979
d 1.240859 0 1 tcp 1510 ------- 1 4.0 5.0 434 2914
d 1.24099 0 1 tcp 1510 ------- 2 6.0 7.0 416 2849
d 1.241128 0 1 tcp 1510 ------- 1 4.0 5.0 435 2917
d 1.241258 0 1 tcp 1510 ------- 2 6.0 7.0 417 2853
d 1.241396 0 1 tcp 1510 ------- 1 4.0 5.0 436 2920
d 1.241527 0 1 tcp 1510 ------- 2 6.0 7.0 418 2856
d 1.241665 0 1 tcp 1510 ------- 1 4.0 5.0 437 2923
d 1.241795 0 1 tcp 1510 ------- 2 6.0 7.0 419 2860
d 1.241933 0 1 tcp 1510 ------- 1 4.0 5.0 438 2926
d 1.242063 0 1 tcp 1510 ------- 2 6.0 7.0 420 2863
d 1.242201 0 1 tcp 1510 ------- 1 4.0 5.0 439 2928
d 1.242332 0 1 tcp 1510 ------- 2 6.0 7.0 421 2867
d 1.24247 0 1 tcp 1510 ------- 1 4.0 5.0 440 2930
d 1.2426 0 1 tcp 1510 ------- 2 6.0 7.0 422 2871
d 1.242738 0 1 tcp 1510 ------- 1 4.0 5.0 441 2932
d 1.242869 0 1 tcp 1510 ------- 2 6.0 7.0 423 2875
d 1.243007 0 1 tcp 1510 ------- 1 4.0 5.0 442 2934
d 1.24314 0 1 tcp 1510 ------- 0 2.0 3.0 554 2998
d 1.243275 0 1 tcp 1510 ------- 1 4.0 5.0 443 2936
d 1.243409 0 1 tcp 1510 ------- 2 6.0 7.0 425 2883
d 1.243544 0 1 tcp 1510 ------- 1 4.0 5.0 444 2938
d 1.243679 0 1 tcp 1510 ---A--- 2 6.0 7.0 224 2887
d 1.243812 0 1 tcp 1510 ------- 1 4.0 5.0 445 2940
d 1.243947 0 1 tcp 1510 ------- 2 6.0 7.0 226 2890
d 1.244081 0 1 tcp 1510 ------- 1 4.0 5.0 446 2942
d 1.244216 0 1 tcp 1510 ------- 2 6.0 7.0 228 2894
d 1.244349 0 1 tcp 1510 ------- 1 4.0 5.0 447 2944
d 1.244484 0 1 tcp 1510 ------- 2 6.0 7.0 230 2897
d 1.244617 0 1 tcp 1510 ------- 1 4.0 5.0 448 2966
d 1.244753 0 1 tcp 1510 ------- 2 6.0 7.0 232 2901
d 1.244886 0 1 tcp 1510 ------- 1 4.0 5.0 449 2968
d 1.245021 0 1 tcp 1510 ------- 2 6.0 7.0 234 2904
d 1.245154 0 1 tcp 1510 ------- 1 4.0 5.0 450 2972
d 1.245289 0 1 tcp 1510 ------- 2 6.0 7.0 236 2907
d 1.245423 0 1 tcp 1510 ------- 1 4.0 5.0 451 2975
d 1.245558 0 1 tcp 1510 ------- 2 6.0 7.0 238 2910
d 1.245691 0 1 tcp 1510 ------- 1 4.0 5.0 452 2977
d 1.245826 0 1 tcp 1510 ------- 2 6.0 7.0 240 2913
d 1.24596 0 1 tcp 1510 ------- 1 4.0 5.0 453 2980
d 1.246095 0 1 tcp 1510 ------- 2 6.0 7.0 242 2916
d 1.246228 0 1 tcp 1510 ------- 1 4.0 5.0 454 2982
d 1.246363 0 1 tcp 1510 ------- 2 6.0 7.0 244 2919
d 1.246497 0 1 tcp 1510 ------- 1 4.0 5.0 319 2984
d 1.246509 0 1 tcp 1510 ------- 1 4.0 5.0 455 2985
d 1.246632 0 1 tcp 1510 ------- 2 6.0 7.0 246 2922
d 1.246765 0 1 tcp 1510 ------- 1 4.0 5.0 321 2987
d 1.246777 0 1 tcp 1510 ------- 1 4.0 5.0 456 2988
d 1.2469 0 1 tcp 1510 ------- 2 6.0 7.0 248 2925
d 1.247033 0 1 tcp 1510 ------- 1 4.0 5.0 323 2990
d 1.247046 0 1 tcp 1510 ------- 1 4.0 5.0 457 2991
d 1.247302 0 1 tcp 1510 ------- 1 4.0 5.0 325 2993
d 1.247314 0 1 tcp 1510 ------- 1 4.0 5.0 458 2994
d 1.374136 0 1 tcp 1510 ------- 0 2.0 3.0 271 3495
d 1.374148 0 1 tcp 1510 ------- 0 2.0 3.0 272 3496
d 1.37416 0 1 tcp 1510 ------- 0 2.0 3.0 273 3497
d 1.374163 0 1 tcp 1510 ------- 3 8.0 9.0 334 3398
d 1.374175 0 1 tcp 1510 ------- 3 8.0 9.0 335 3399
d 1.374368 0 1 tcp 1510 ------- 0 2.0 3.0 274 3500
d 1.374381 0 1 tcp 1510 ------- 0 2.0 3.0 275 3501
d 1.374393 0 1 tcp 1510 ------- 0 2.0 3.0 276 3502
d 1.374405 0 1 tcp 1510 ------- 0 2.0 3.0 277 3503
d 1.374417 0 1 tcp 1510 ------- 0 2.0 3.0 279 3504
d 1.374429 0 1 tcp 1510 ------- 0 2.0 3.0 280 3505
d 1.374431 0 1 tcp 1510 ------- 3 8.0 9.0 336 3400
d 1.374443 0 1 tcp 1510 ------- 3 8.0 9.0 337 3401
d 1.374453 0 1 tcp 1510 ------- 0 2.0 3.0 283 3507
d 1.374465 0 1 tcp 1510 ------- 0 2.0 3.0 284 3508
d 1.374477 0 1 tcp 1510 ------- 0 2.0 3.0 285 3509
d 1.374489 0 1 tcp 1510 ------- 0 2.0 3.0 591 3510
d 1.374637 0 1 tcp 1510 ------- 0 2.0 3.0 286 3512
d 1.374649 0 1 tcp 1510 ------- 0 2.0 3.0 287 3513
d 1.374661 0 1 tcp 1510 ------- 0 2.0 3.0 592 3514
d 1.3747 0 1 tcp 1510 ------- 3 8.0 9.0 338 3402
d 1.374905 0 1 tcp 1510 ------- 0 2.0 3.0 288 3516
d 1.374917 0 1 tcp 1510 ------- 0 2.0 3.0 289 3517
d 1.37493 0 1 tcp 1510 ------- 0 2.0 3.0 593 3518
d 1.374968 0 1 tcp 1510 ------- 3 8.0 9.0 340 3404
d 1.375174 0 1 tcp 1510 ------- 0 2.0 3.0 594 3520