d 0.930063 0 1 tcp 1510 ------- 0 2.0 3.0 152 625
d 0.930332 0 1 tcp 1510 ------- 0 2.0 3.0 154 627
d 0.9306 0 1 tcp 1510 ------- 0 2.0 3.0 156 629
d 0.930868 0 1 tcp 1510 ------- 0 2.0 3.0 158 631
d 0.931137 0 1 tcp 1510 ------- 0 2.0 3.0 160 633
d 0.931405 0 1 tcp 1510 ------- 0 2.0 3.0 162 635
d 0.931674 0 1 tcp 1510 ------- 0 2.0 3.0 164 637
d 0.931942 0 1 tcp 1510 ------- 0 2.0 3.0 166 639
d 0.932211 0 1 tcp 1510 ------- 0 2.0 3.0 168 641
d 0.932479 0 1 tcp 1510 ------- 0 2.0 3.0 170 643
d 0.932748 0 1 tcp 1510 ------- 0 2.0 3.0 172 645
d 0.933016 0 1 tcp 1510 ------- 0 2.0 3.0 174 647
d 0.933284 0 1 tcp 1510 ------- 0 2.0 3.0 176 649
d 0.933553 0 1 tcp 1510 ------- 0 2.0 3.0 178 651
d 0.933821 0 1 tcp 1510 ------- 0 2.0 3.0 180 653
d 0.93409 0 1 tcp 1510 ------- 0 2.0 3.0 182 655
d 0.934358 0 1 tcp 1510 ------- 0 2.0 3.0 184 657
d 0.934627 0 1 tcp 1510 ------- 0 2.0 3.0 186 659
d 0.934895 0 1 tcp 1510 ------- 0 2.0 3.0 188 661
d 0.935164 0 1 tcp 1510 ------- 0 2.0 3.0 190 663
d 0.935432 0 1 tcp 1510 ------- 0 2.0 3.0 192 665
d 0.9357 0 1 tcp 1510 ------- 0 2.0 3.0 194 667
d 0.935969 0 1 tcp 1510 ------- 0 2.0 3.0 196 669
d 0.936237 0 1 tcp 1510 ------- 0 2.0 3.0 198 671
d 0.936506 0 1 tcp 1510 ------- 0 2.0 3.0 200 673
d 0.936774 0 1 tcp 1510 ------- 0 2.0 3.0 202 675
d 0.937043 0 1 tcp 1510 ------- 0 2.0 3.0 204 677
d 0.937311 0 1 tcp 1510 ------- 0 2.0 3.0 206 679
d 0.93758 0 1 tcp 1510 ------- 0 2.0 3.0 208 681
d 0.937848 0 1 tcp 1510 ------- 0 2.0 3.0 210 683
d 0.938116 0 1 tcp 1510 ------- 0 2.0 3.0 212 685
d 0.938385 0 1 tcp 1510 ------- 0 2.0 3.0 214 687
d 0.938653 0 1 tcp 1510 ------- 0 2.0 3.0 216 689
d 0.938922 0 1 tcp 1510 ------- 0 2.0 3.0 218 691
d 0.93919 0 1 tcp 1510 ------- 0 2.0 3.0 220 693
d 0.939459 0 1 tcp 1510 ------- 0 2.0 3.0 222 695
d 0.939727 0 1 tcp 1510 ------- 0 2.0 3.0 224 697
d 0.939996 0 1 tcp 1510 ------- 0 2.0 3.0 226 699
d 0.940264 0 1 tcp 1510 ------- 0 2.0 3.0 228 701
d 0.940532 0 1 tcp 1510 ------- 0 2.0 3.0 230 703
d 0.940801 0 1 tcp 1510 ------- 0 2.0 3.0 232 705
d 0.941069 0 1 tcp 1510 ------- 0 2.0 3.0 234 707
d 0.941338 0 1 tcp 1510 ------- 0 2.0 3.0 236 709
d 0.941606 0 1 tcp 1510 ------- 0 2.0 3.0 238 711
d 0.941875 0 1 tcp 1510 ------- 0 2.0 3.0 240 713
d 0.942143 0 1 tcp 1510 ------- 0 2.0 3.0 242 715
d 0.942412 0 1 tcp 1510 ------- 0 2.0 3.0 244 717
d 0.94268 0 1 tcp 1510 ------- 0 2.0 3.0 246 719
d 0.942948 0 1 tcp 1510 ------- 0 2.0 3.0 248 721
d 0.943217 0 1 tcp 1510 ------- 0 2.0 3.0 250 723
d 0.943485 0 1 tcp 1510 ------- 0 2.0 3.0 252 725
d 0.943754 0 1 tcp 1510 ------- 0 2.0 3.0 254 727
d 1.076125 0 1 tcp 1510 ------- 1 4.0 5.0 159 1076
d 1.076137 0 1 tcp 1510 ------- 1 4.0 5.0 160 1077
d 1.076393 0 1 tcp 1510 ------- 1 4.0 5.0 161 1080
d 1.076405 0 1 tcp 1510 ------- 1 4.0 5.0 162 1081
d 1.076674 0 1 tcp 1510 ------- 1 4.0 5.0 164 1085
d 1.076942 0 1 tcp 1510 ------- 1 4.0 5.0 166 1089
d 1.077211 0 1 tcp 1510 ------- 1 4.0 5.0 168 1093
d 1.077479 0 1 tcp 1510 ------- 1 4.0 5.0 170 1097
d 1.077748 0 1 tcp 1510 ------- 1 4.0 5.0 172 1101
d 1.078016 0 1 tcp 1510 ------- 1 4.0 5.0 174 1105
d 1.078284 0 1 tcp 1510 ------- 1 4.0 5.0 176 1109
d 1.078553 0 1 tcp 1510 ------- 1 4.0 5.0 178 1113
d 1.078821 0 1 tcp 1510 ------- 1 4.0 5.0 180 1117
d 1.07909 0 1 tcp 1510 ------- 1 4.0 5.0 182 1121
d 1.079358 0 1 tcp 1510 ------- 1 4.0 5.0 184 1125
d 1.079627 0 1 tcp 1510 ------- 1 4.0 5.0 186 1129
d 1.079895 0 1 tcp 1510 ------- 1 4.0 5.0 188 1133
d 1.080164 0 1 tcp 1510 ------- 1 4.0 5.0 190 1137
d 1.080432 0 1 tcp 1510 ------- 1 4.0 5.0 192 1141
d 1.0807 0 1 tcp 1510 ------- 1 4.0 5.0 194 1145
d 1.080969 0 1 tcp 1510 ------- 1 4.0 5.0 196 1148
d 1.081237 0 1 tcp 1510 ------- 1 4.0 5.0 198 1151
d 1.081506 0 1 tcp 1510 ------- 1 4.0 5.0 200 1154
d 1.081774 0 1 tcp 1510 ------- 1 4.0 5.0 202 1156
d 1.082043 0 1 tcp 1510 ------- 1 4.0 5.0 204 1158
d 1.082311 0 1 tcp 1510 ------- 1 4.0 5.0 206 1160
d 1.08258 0 1 tcp 1510 ------- 1 4.0 5.0 208 1162
d 1.082848 0 1 tcp 1510 ------- 1 4.0 5.0 210 1164
d 1.083116 0 1 tcp 1510 ------- 1 4.0 5.0 212 1166
d 1.083385 0 1 tcp 1510 ------- 1 4.0 5.0 214 1168
d 1.083653 0 1 tcp 1510 ------- 1 4.0 5.0 216 1170
d 1.083922 0 1 tcp 1510 ------- 1 4.0 5.0 218 1172
d 1.08419 0 1 tcp 1510 ------- 1 4.0 5.0 220 1174
d 1.084459 0 1 tcp 1510 ------- 1 4.0 5.0 222 1176
d 1.084727 0 1 tcp 1510 ------- 1 4.0 5.0 224 1178
d 1.084996 0 1 tcp 1510 ------- 1 4.0 5.0 226 1180
d 1.085264 0 1 tcp 1510 ------- 1 4.0 5.0 228 1182
d 1.085532 0 1 tcp 1510 ------- 1 4.0 5.0 230 1184
d 1.085801 0 1 tcp 1510 ------- 1 4.0 5.0 232 1186
d 1.086069 0 1 tcp 1510 ------- 1 4.0 5.0 234 1188
d 1.086338 0 1 tcp 1510 ------- 1 4.0 5.0 236 1190
d 1.086606 0 1 tcp 1510 ------- 1 4.0 5.0 238 1192
d 1.226225 0 1 tcp 1510 ------- 2 6.0 7.0 197 1560
d 1.226237 0 1 tcp 1510 ------- 2 6.0 7.0 198 1561
d 1.226423 0 1 tcp 1510 ------- 1 4.0 5.0 262 1616
d 1.226494 0 1 tcp 1510 ------- 2 6.0 7.0 199 1563
d 1.226506 0 1 tcp 1510 ------- 2 6.0 7.0 200 1564
d 1.226774 0 1 tcp 1510 ------- 2 6.0 7.0 202 1567
d 1.227043 0 1 tcp 1510 ------- 2 6.0 7.0 204 1569
d 1.227228 0 1 tcp 1510 ------- 1 4.0 5.0 264 1625
d 1.227299 0 1 tcp 1510 ------- 2 6.0 7.0 205 1570
d 1.227311 0 1 tcp 1510 ------- 2 6.0 7.0 206 1571
d 1.227497 0 1 tcp 1510 ------- 1 4.0 5.0 266 1629
d 1.227567 0 1 tcp 1510 ------- 2 6.0 7.0 207 1573
d 1.22758 0 1 tcp 1510 ------- 2 6.0 7.0 208 1574
d 1.227848 0 1 tcp 1510 ------- 2 6.0 7.0 210 1577
d 1.228116 0 1 tcp 1510 ------- 2 6.0 7.0 212 1579
d 1.228302 0 1 tcp 1510 ------- 1 4.0 5.0 268 1637
d 1.228373 0 1 tcp 1510 ------- 2 6.0 7.0 213 1580
d 1.228385 0 1 tcp 1510 ------- 2 6.0 7.0 214 1581
d 1.228571 0 1 tcp 1510 ------- 1 4.0 5.0 270 1641
d 1.228641 0 1 tcp 1510 ------- 2 6.0 7.0 215 1583
d 1.228653 0 1 tcp 1510 ------- 2 6.0 7.0 216 1584
d 1.228922 0 1 tcp 1510 ------- 2 6.0 7.0 218 1587
d 1.22919 0 1 tcp 1510 ------- 2 6.0 7.0 220 1589
d 1.229376 0 1 tcp 1510 ------- 1 4.0 5.0 272 1645
d 1.229447 0 1 tcp 1510 ------- 2 6.0 7.0 221 1590
d 1.229459 0 1 tcp 1510 ------- 2 6.0 7.0 222 1591
d 1.229644 0 1 tcp 1510 ------- 1 4.0 5.0 274 1647
d 1.229715 0 1 tcp 1510 ------- 2 6.0 7.0 223 1593
d 1.229727 0 1 tcp 1510 ------- 2 6.0 7.0 224 1594
d 1.229996 0 1 tcp 1510 ------- 2 6.0 7.0 226 1597
d 1.230264 0 1 tcp 1510 ------- 2 6.0 7.0 228 1601
d 1.23045 0 1 tcp 1510 ------- 1 4.0 5.0 276 1649
d 1.23052 0 1 tcp 1510 ------- 2 6.0 7.0 229 1604
d 1.230532 0 1 tcp 1510 ------- 2 6.0 7.0 230 1605
d 1.230718 0 1 tcp 1510 ------- 1 4.0 5.0 278 1651
d 1.230789 0 1 tcp 1510 ------- 2 6.0 7.0 231 1607
d 1.230801 0 1 tcp 1510 ------- 2 6.0 7.0 232 1608
d 1.231069 0 1 tcp 1510 ------- 2 6.0 7.0 234 1610
d 1.231338 0 1 tcp 1510 ------- 2 6.0 7.0 236 1614
d 1.231523 0 1 tcp 1510 ------- 1 4.0 5.0 280 1653
d 1.231594 0 1 tcp 1510 ------- 2 6.0 7.0 237 1618
d 1.231606 0 1 tcp 1510 ------- 2 6.0 7.0 238 1619
d 1.231792 0 1 tcp 1510 ------- 1 4.0 5.0 282 1655
d 1.231863 0 1 tcp 1510 ------- 2 6.0 7.0 239 1620
d 1.231875 0 1 tcp 1510 ------- 2 6.0 7.0 240 1621
d 1.232143 0 1 tcp 1510 ------- 2 6.0 7.0 242 1623
d 1.232412 0 1 tcp 1510 ------- 2 6.0 7.0 244 1627
d 1.232597 0 1 tcp 1510 ------- 1 4.0 5.0 284 1657
d 1.232668 0 1 tcp 1510 ------- 2 6.0 7.0 245 1630
d 1.23268 0 1 tcp 1510 ------- 2 6.0 7.0 246 1631
d 1.232866 0 1 tcp 1510 ------- 1 4.0 5.0 286 1659
d 1.232936 0 1 tcp 1510 ------- 2 6.0 7.0 247 1632
d 1.232948 0 1 tcp 1510 ------- 2 6.0 7.0 248 1633
d 1.233217 0 1 tcp 1510 ------- 2 6.0 7.0 250 1635
d 1.233485 0 1 tcp 1510 ------- 2 6.0 7.0 252 1639
d 1.233671 0 1 tcp 1510 ------- 1 4.0 5.0 288 1661
d 1.233742 0 1 tcp 1510 ------- 2 6.0 7.0 253 1642
d 1.233754 0 1 tcp 1510 ------- 2 6.0 7.0 254 1643
d 1.233939 0 1 tcp 1510 ------- 1 4.0 5.0 290 1663
d 1.241187 0 1 tcp 1510 ------- 1 4.0 5.0 318 1691
d 1.374983 0 1 tcp 1510 ------- 3 8.0 9.0 225 2016
d 1.375252 0 1 tcp 1510 ------- 3 8.0 9.0 227 2018
d 1.37552 0 1 tcp 1510 ------- 3 8.0 9.0 229 2020
d 1.375789 0 1 tcp 1510 ------- 3 8.0 9.0 231 2022
d 1.376057 0 1 tcp 1510 ------- 3 8.0 9.0 233 2024
d 1.376326 0 1 tcp 1510 ------- 3 8.0 9.0 235 2026
d 1.376594 0 1 tcp 1510 ------- 3 8.0 9.0 237 2028
d 1.376863 0 1 tcp 1510 ------- 3 8.0 9.0 239 2030
d 1.377131 0 1 tcp 1510 ------- 3 8.0 9.0 241 2032
d 1.377399 0 1 tcp 1510 ------- 3 8.0 9.0 243 2034
d 1.377668 0 1 tcp 1510 ------- 3 8.0 9.0 245 2036
d 1.377936 0 1 tcp 1510 ------- 3 8.0 9.0 247 2038
d 1.378205 0 1 tcp 1510 ------- 3 8.0 9.0 249 2040
d 1.378473 0 1 tcp 1510 ------- 3 8.0 9.0 251 2042
d 1.378742 0 1 tcp 1510 ------- 3 8.0 9.0 253 2044
d 1.402351 0 1 tcp 1510 ------- 2 6.0 7.0 338 2129
d 1.402608 0 1 tcp 1510 ------- 2 6.0 7.0 339 2130
d 1.40262 0 1 tcp 1510 ------- 2 6.0 7.0 340 2131
d 1.402876 0 1 tcp 1510 ------- 2 6.0 7.0 341 2132
d 1.402888 0 1 tcp 1510 ------- 2 6.0 7.0 342 2133
d 1.403144 0 1 tcp 1510 ------- 2 6.0 7.0 343 2134
d 1.403156 0 1 tcp 1510 ------- 2 6.0 7.0 344 2135
d 1.403413 0 1 tcp 1510 ------- 2 6.0 7.0 345 2136
d 1.403425 0 1 tcp 1510 ------- 2 6.0 7.0 346 2137
d 1.403681 0 1 tcp 1510 ------- 2 6.0 7.0 347 2138
d 1.403693 0 1 tcp 1510 ------- 2 6.0 7.0 348 2139
d 1.40395 0 1 tcp 1510 ------- 2 6.0 7.0 349 2140
d 1.403962 0 1 tcp 1510 ------- 2 6.0 7.0 350 2141
d 1.404218 0 1 tcp 1510 ------- 2 6.0 7.0 351 2142
d 1.40423 0 1 tcp 1510 ------- 2 6.0 7.0 352 2143
d 1.404487 0 1 tcp 1510 ------- 2 6.0 7.0 353 2144
d 1.404499 0 1 tcp 1510 ------- 2 6.0 7.0 354 2145
d 1.404755 0 1 tcp 1510 ------- 2 6.0 7.0 355 2146
d 1.404767 0 1 tcp 1510 ------- 2 6.0 7.0 356 2147
d 1.405024 0 1 tcp 1510 ------- 2 6.0 7.0 357 2148
d 1.405036 0 1 tcp 1510 ------- 2 6.0 7.0 358 2149
d 1.405292 0 1 tcp 1510 ------- 2 6.0 7.0 359 2150
d 1.405304 0 1 tcp 1510 ------- 2 6.0 7.0 360 2151
d 1.40556 0 1 tcp 1510 ------- 2 6.0 7.0 361 2152
d 1.405572 0 1 tcp 1510 ------- 2 6.0 7.0 362 2153
d 1.405829 0 1 tcp 1510 ------- 2 6.0 7.0 363 2154
d 1.405841 0 1 tcp 1510 ------- 2 6.0 7.0 364 2155
d 1.406097 0 1 tcp 1510 ------- 2 6.0 7.0 365 2156
d 1.406109 0 1 tcp 1510 ------- 2 6.0 7.0 366 2157
d 1.406366 0 1 tcp 1510 ------- 2 6.0 7.0 367 2158
d 1.406378 0 1 tcp 1510 ------- 2 6.0 7.0 368 2159
d 1.406634 0 1 tcp 1510 ------- 2 6.0 7.0 369 2161
d 1.406646 0 1 tcp 1510 ------- 2 6.0 7.0 370 2162
d 1.406903 0 1 tcp 1510 ------- 2 6.0 7.0 371 2164
d 1.406915 0 1 tcp 1510 ------- 2 6.0 7.0 372 2165
d 1.407171 0 1 tcp 1510 ------- 2 6.0 7.0 373 2167
d 1.407183 0 1 tcp 1510 ------- 2 6.0 7.0 374 2168
d 1.407452 0 1 tcp 1510 ------- 2 6.0 7.0 376 2171
d 1.40772 0 1 tcp 1510 ------- 2 6.0 7.0 378 2174
d 1.410136 0 1 tcp 1510 ------- 2 6.0 7.0 388 2193
d 1.410404 0 1 tcp 1510 ------- 2 6.0 7.0 390 2196
d 1.410673 0 1 tcp 1510 ------- 2 6.0 7.0 392 2199
d 1.410941 0 1 tcp 1510 ------- 2 6.0 7.0 394 2202
d 1.566747 0 1 tcp 1510 ------- 3 8.0 9.0 349 2542
d 1.567015 0 1 tcp 1510 ------- 3 8.0 9.0 351 2544
d 1.567284 0 1 tcp 1510 ------- 3 8.0 9.0 353 2546
d 1.567552 0 1 tcp 1510 ------- 3 8.0 9.0 355 2548
d 1.567821 0 1 tcp 1510 ------- 3 8.0 9.0 357 2550
d 1.568089 0 1 tcp 1510 ------- 3 8.0 9.0 359 2552
d 1.568358 0 1 tcp 1510 ------- 3 8.0 9.0 361 2554
d 1.568626 0 1 tcp 1510 ------- 3 8.0 9.0 363 2556
d 1.568895 0 1 tcp 1510 ------- 3 8.0 9.0 365 2558
d 1.569163 0 1 tcp 1510 ------- 3 8.0 9.0 367 2560
d 1.569431 0 1 tcp 1510 ------- 3 8.0 9.0 369 2562
d 1.5697 0 1 tcp 1510 ------- 3 8.0 9.0 371 2564
d 1.569968 0 1 tcp 1510 ------- 3 8.0 9.0 373 2566
d 1.570237 0 1 tcp 1510 ------- 3 8.0 9.0 375 2568
d 1.570505 0 1 tcp 1510 ------- 3 8.0 9.0 377 2570
d 1.570774 0 1 tcp 1510 ------- 3 8.0 9.0 379 2572
d 1.571042 0 1 tcp 1510 ------- 3 8.0 9.0 381 2574
d 1.571311 0 1 tcp 1510 ------- 3 8.0 9.0 383 2576
d 1.571579 0 1 tcp 1510 ------- 3 8.0 9.0 385 2578
d 1.571847 0 1 tcp 1510 ------- 3 8.0 9.0 387 2580
d 1.572116 0 1 tcp 1510 ------- 3 8.0 9.0 389 2582
d 1.572384 0 1 tcp 1510 ------- 3 8.0 9.0 391 2586
d 1.572653 0 1 tcp 1510 ------- 3 8.0 9.0 393 2588
d 1.572921 0 1 tcp 1510 ------- 3 8.0 9.0 395 2590
d 1.57319 0 1 tcp 1510 ------- 3 8.0 9.0 397 2592
d 1.573458 0 1 tcp 1510 ------- 3 8.0 9.0 399 2594
d 5.284926 0 1 tcp 1510 ------- 2 6.0 7.0 1102 9435
d 5.285059 0 1 tcp 1510 ------- 1 4.0 5.0 1028 9465
d 5.285194 0 1 tcp 1510 ------- 0 2.0 3.0 1298 9493
d 5.285194 0 1 tcp 1510 ------- 2 6.0 7.0 1103 9437
d 5.285327 0 1 tcp 1510 ------- 1 4.0 5.0 1029 9466
d 5.285731 0 1 tcp 1510 ------- 2 6.0 7.0 1104 9441
d 5.285864 0 1 tcp 1510 ------- 1 4.0 5.0 1031 9469
d 5.286133 0 1 tcp 1510 ------- 1 4.0 5.0 1032 9470
d 5.286401 0 1 tcp 1510 ------- 1 4.0 5.0 1033 9473
d 5.287073 0 1 tcp 1510 ------- 3 8.0 9.0 885 9420
d 5.287206 0 1 tcp 1510 ------- 1 4.0 5.0 1037 9478
d 5.287743 0 1 tcp 1510 ------- 1 4.0 5.0 1039 9480
d 5.288012 0 1 tcp 1510 ------- 1 4.0 5.0 1040 9482
d 5.288817 0 1 tcp 1510 ------- 1 4.0 5.0 1043 9485
d 5.289354 0 1 tcp 1510 ------- 1 4.0 5.0 1045 9488
d 5.289622 0 1 tcp 1510 ------- 1 4.0 5.0 1046 9489
d 5.289891 0 1 tcp 1510 ------- 1 4.0 5.0 1047 9491
d 5.290159 0 1 tcp 1510 ------- 1 4.0 5.0 1048 9492
d 5.290428 0 1 tcp 1510 ------- 1 4.0 5.0 1049 9494
d 5.290563 0 1 tcp 1510 ------- 3 8.0 9.0 891 9440
d 5.290696 0 1 tcp 1510 ------- 1 4.0 5.0 1050 9495
d 5.290965 0 1 tcp 1510 ------- 1 4.0 5.0 1051 9496
d 5.291233 0 1 tcp 1510 ------- 1 4.0 5.0 1052 9498
d 5.291644 0 1 tcp 1510 ------- 3 8.0 9.0 893 9447
d 5.29177 0 1 tcp 1510 ------- 1 4.0 5.0 1054 9500
d 5.292174 0 1 tcp 1510 ------- 3 8.0 9.0 894 9450
d 5.292307 0 1 tcp 1510 ------- 1 4.0 5.0 1056 9502
d 5.292844 0 1 tcp 1510 ------- 1 4.0 5.0 1058 9505
d 5.293112 0 1 tcp 1510 ------- 1 4.0 5.0 1059 9506
d 5.293381 0 1 tcp 1510 ------- 1 4.0 5.0 1060 9507
d 5.294273 0 1 tcp 1510 ------- 0 2.0 3.0 1309 9520
d 5.29481 0 1 tcp 1510 ------- 0 2.0 3.0 1310 9521
d 16.530737 0 1 tcp 1510 ------- 1 4.0 5.0 3966 32583
d 16.532348 0 1 tcp 1510 ------- 1 4.0 5.0 3970 32591
d 16.532616 0 1 tcp 1510 ------- 1 4.0 5.0 3971 32593
d 16.532753 0 1 tcp 1510 ------- 3 8.0 9.0 2958 32536
d 16.532885 0 1 tcp 1510 ------- 1 4.0 5.0 3972 32595
d 16.533825 0 1 tcp 1510 ------- 2 6.0 7.0 3627 32571
d 16.534362 0 1 tcp 1510 ------- 2 6.0 7.0 3628 32576
d 16.545603 0 1 tcp 1510 ------- 0 2.0 3.0 5345 32649
d 16.545859 0 1 tcp 1510 ------- 0 2.0 3.0 5346 32650
d 16.546127 0 1 tcp 1510 ------- 0 2.0 3.0 5347 32651
d 16.546174 0 1 tcp 1510 ------- 2 6.0 7.0 3638 32627
d 16.547201 0 1 tcp 1510 ------- 0 2.0 3.0 5349 32653
d 27.136483 0 1 tcp 1510 ------- 2 6.0 7.0 6051 58369
d 27.137825 0 1 tcp 1510 ------- 2 6.0 7.0 6053 58376
d 27.138093 0 1 tcp 1510 ------- 2 6.0 7.0 6054 58377
d 27.138899 0 1 tcp 1510 ------- 2 6.0 7.0 6055 58384
d 27.139972 0 1 tcp 1510 ------- 2 6.0 7.0 6057 58390
d 27.140778 0 1 tcp 1510 ------- 2 6.0 7.0 6059 58399
d 27.141487 0 1 tcp 1510 ------- 1 4.0 5.0 7093 58433
d 27.141851 0 1 tcp 1510 ------- 2 6.0 7.0 6061 58405
d 27.14212 0 1 tcp 1510 ------- 2 6.0 7.0 6062 58407
d 27.142292 0 1 tcp 1510 ------- 0 2.0 3.0 9498 58456
d 27.142292 0 1 tcp 1510 ------- 1 4.0 5.0 7095 58438
d 27.143147 0 1 tcp 1510 ------- 3 8.0 9.0 6129 58378
d 27.143462 0 1 tcp 1510 ------- 2 6.0 7.0 6064 58415
d 27.144306 0 1 tcp 1510 ------- 0 2.0 3.0 9500 58462
d 27.144804 0 1 tcp 1510 ------- 2 6.0 7.0 6066 58423
d 27.145341 0 1 tcp 1510 ------- 3 8.0 9.0 6133 58395
d 27.145745 0 1 tcp 1510 ------- 3 8.0 9.0 6134 58398
d 27.146415 0 1 tcp 1510 ------- 2 6.0 7.0 6068 58431
d 27.146683 0 1 tcp 1510 ------- 2 6.0 7.0 6069 58435
d 27.146819 0 1 tcp 1510 ------- 3 8.0 9.0 6136 58404
d 27.147355 0 1 tcp 1510 ------- 3 8.0 9.0 6137 58408
d 27.147489 0 1 tcp 1510 ------- 2 6.0 7.0 6070 58440
d 27.148465 0 1 tcp 1510 ------- 0 2.0 3.0 9505 58475
d 27.148563 0 1 tcp 1510 ------- 3 8.0 9.0 6138 58416
d 27.149905 0 1 tcp 1510 ------- 0 2.0 3.0 9506 58478
d 27.150308 0 1 tcp 1510 ------- 3 8.0 9.0 6141 58425
d 27.15071 0 1 tcp 1510 ------- 0 2.0 3.0 9507 58480
d 27.150979 0 1 tcp 1510 ------- 0 2.0 3.0 9508 58481
d 27.150979 0 1 tcp 1510 ------- 2 6.0 7.0 6074 58452
d 27.151114 0 1 tcp 1510 ------- 3 8.0 9.0 6143 58430
d 27.151661 0 1 tcp 1510 ------- 1 4.0 5.0 7112 58470
d 27.152589 0 1 tcp 1510 ------- 0 2.0 3.0 9510 58485
